# LAMMPS data file
120 atoms
120 ellipsoids
118 bonds

4 atom types
1 bond types

# System size
0.000000 200.000000 xlo xhi
0.000000 200.000000 ylo yhi
0.000000 200.000000 zlo zhi

Masses

1 3.1575
2 3.1575
3 3.1575
4 3.1575

# Atom-ID, type, position, molecule-ID, ellipsoid flag, density
Atoms

1 1 -4.006995260715485e-01  1.534130722284317e-01  2.299600791931152e+01 1 1 1
2 1 -5.864495635032654e-01  4.732051193714142e-01  2.260624504089355e+01 1 1 1
3 1 -5.493975281715393e-01  8.411686420440674e-01  2.221648216247559e+01 1 1 1
4 1 -3.036202490329742e-01  1.117508172988892e+00  2.182671928405762e+01 1 1 1
5 1  5.750745162367821e-02  1.197237730026245e+00  2.143695640563965e+01 1 1 1
6 1  3.967871069908142e-01  1.050066590309143e+00  2.104719352722168e+01 1 1 1
7 1  5.853207111358643e-01  7.319077253341675e-01  2.065743064880371e+01 1 1 1
8 1  5.514811873435974e-01  3.636348545551300e-01  2.026766777038574e+01 1 1 1
9 1  3.081247508525848e-01  8.516106009483337e-02  1.987790489196777e+01 1 1 1
10 1 -5.229344591498375e-02  2.283181063830853e-03  1.948814201354980e+01 1 1 1
11 1 -3.928444981575012e-01  1.464879214763641e-01  1.909837913513184e+01 1 1 1
12 1 -5.841473340988159e-01  4.629894793033600e-01  1.870861625671387e+01 1 1 1
13 1 -5.535228252410889e-01  8.315436244010925e-01  1.831885337829590e+01 1 1 1
14 1 -3.126057684421539e-01  1.112130522727966e+00  1.792909049987793e+01 1 1 1
15 1  4.707545787096024e-02  1.198150396347046e+00  1.753932762145996e+01 1 1 1
16 1  3.888719379901886e-01  1.056923031806946e+00  1.714956474304199e+01 1 1 1
17 1  5.829294919967651e-01  7.421028614044189e-01  1.675980186462402e+01 1 1 1
18 1  5.555223226547241e-01  3.732955157756805e-01  1.637003898620605e+01 1 1 1
19 1  3.170630037784576e-01  9.061698615550995e-02  1.598027706146240e+01 1 1 1
20 1 -4.185388609766960e-02  1.461569801904261e-03  1.559051418304443e+01 1 1 1
21 1 -3.848697841167450e-01  1.397009044885635e-01  1.520075130462646e+01 1 1 1
22 1 -5.816671848297119e-01  4.528155624866486e-01  1.481098842620850e+01 1 1 1
23 1 -5.574795603752136e-01  8.218480348587036e-01  1.442122554779053e+01 1 1 1
24 1 -3.214960694313049e-01  1.106596708297729e+00  1.403146266937256e+01 1 1 1
25 1  3.662912547588348e-02  1.198880910873413e+00  1.364169979095459e+01 1 1 1
26 1  3.808383047580719e-01  1.063640117645264e+00  1.325193691253662e+01 1 1 1
27 1  5.803606510162354e-01  7.522547841072083e-01  1.286217403411865e+01 1 1 1
28 1  5.593942999839783e-01  3.830252587795258e-01  1.247241115570068e+01 1 1 1
29 1  3.259046673774719e-01  9.622807800769806e-02  1.208264827728271e+01 1 1 1
30 1 -3.140157461166382e-02  8.222791366279125e-04  1.169288539886475e+01 1 1 1
31 1 -3.767778277397156e-01  1.330541074275970e-01  1.130312252044678e+01 1 1 1
32 1 -5.790098905563354e-01  4.426864981651306e-01  1.091335964202881e+01 1 1 1
33 1 -5.612664222717285e-01  8.120849132537842e-01  1.052359676361084e+01 1 1 1
34 1 -3.302884399890900e-01  1.100908756256104e+00  1.013383388519287e+01 1 1 1
35 1  2.617163211107254e-02  1.199428915977478e+00  9.744071006774902e+00 1 1 1
36 1  3.726886808872223e-01  1.070216059684753e+00  9.354308128356934e+00 1 1 1
37 1  5.776150226593018e-01  7.623602747917175e-01  8.964545249938965e+00 1 1 1
38 1  5.630958080291748e-01  3.928210735321045e-01  8.574782371520996e+00 1 1 1
39 1  3.346470594406128e-01  1.019926294684410e-01  8.185019493103027e+00 1 1 1
40 1 -2.093969844281673e-02  3.655038017313927e-04  7.795257091522217e+00 1 1 1
41 1 -3.685711324214935e-01  1.265495419502258e-01  7.405494213104248e+00 1 1 1
42 1 -5.761762261390686e-01  4.326053261756897e-01  7.015731334686279e+00 1 1 1
43 1 -5.648823380470276e-01  8.022571802139282e-01  6.625968456268311e+00 1 1 1
44 1 -3.389801979064941e-01  1.095068097114563e+00  6.236205577850342e+00 1 1 1
45 1  1.570616848766804e-02  1.199794411659241e+00  5.846442699432373e+00 1 1 1
46 1  3.644255101680756e-01  1.076648831367493e+00  5.456679821014404e+00 1 1 1
47 1  5.746935009956360e-01  7.724162936210632e-01  5.066916942596436e+00 1 1 1
48 1  5.666258335113525e-01  4.026800096035004e-01  4.677154064178467e+00 1 1 1
49 1  3.432875275611877e-01  1.079088747501373e-01  4.287391185760498e+00 1 1 1
50 1 -1.047144364565611e-02  9.138290624832734e-05  3.897628545761108e+00 1 1 1
51 1 -3.602521419525146e-01  1.201892048120499e-01  3.507865667343140e+00 1 1 1
52 1 -5.731670260429382e-01  4.225751757621765e-01  3.118102788925171e+00 1 1 1
53 1 -5.683261752128601e-01  7.923678159713745e-01  2.728339910507202e+00 1 1 1
54 1 -3.475686907768250e-01  1.089076638221741e+00  2.338577032089233e+00 1 1 1
55 1  5.235921125859022e-03  1.199977159500122e+00  1.948814272880554e+00 1 1 1
56 1  3.560513257980347e-01  1.082936286926270e+00  1.559051394462585e+00 1 1 1
57 1  5.715968608856201e-01  7.824198603630066e-01  1.169288516044617e+00 1 1 1
58 1  5.699832439422607e-01  4.125990569591522e-01  7.795256972312927e-01 1 1 1
59 1  3.518234193325043e-01  1.139750182628632e-01  3.897628486156464e-01 1 1 1
60 1  0.000000000000000e+00  0.000000000000000e+00  0.000000000000000e+00 1 1 1
61 4  0.000000000000000e+00  1.200000047683716e+00  0.000000000000000e+00 2 1 1
62 4 -3.518234193325043e-01  1.086024999618530e+00  3.897628486156464e-01 2 1 1
63 4 -5.699832439422607e-01  7.874009609222412e-01  7.795256972312927e-01 2 1 1
64 4 -5.715968608856201e-01  4.175801575183868e-01  1.169288516044617e+00 2 1 1
65 4 -3.560513257980347e-01  1.170637235045433e-01  1.559051394462585e+00 2 1 1
66 4 -5.235921125859022e-03  2.284616130054928e-05  1.948814272880554e+00 2 1 1
67 4  3.475686907768250e-01  1.109233200550079e-01  2.338577032089233e+00 2 1 1
68 4  5.683261752128601e-01  4.076322019100189e-01  2.728339910507202e+00 2 1 1
69 4  5.731670260429382e-01  7.774248123168945e-01  3.118102788925171e+00 2 1 1
70 4  3.602521419525146e-01  1.079810738563538e+00  3.507865667343140e+00 2 1 1
71 4  1.047144364565611e-02  1.199908614158630e+00  3.897628545761108e+00 2 1 1
72 4 -3.432875275611877e-01  1.092091083526611e+00  4.287391185760498e+00 2 1 1
73 4 -5.666258335113525e-01  7.973200082778931e-01  4.677154064178467e+00 2 1 1
74 4 -5.746935009956360e-01  4.275836944580078e-01  5.066916942596436e+00 2 1 1
75 4 -3.644255101680756e-01  1.233512312173843e-01  5.456679821014404e+00 2 1 1
76 4 -1.570616848766804e-02  2.056050143437460e-04  5.846442699432373e+00 2 1 1
77 4  3.389801979064941e-01  1.049318984150887e-01  6.236205577850342e+00 2 1 1
78 4  5.648823380470276e-01  3.977428376674652e-01  6.625968456268311e+00 2 1 1
79 4  5.761762261390686e-01  7.673946619033813e-01  7.015731334686279e+00 2 1 1
80 4  3.685711324214935e-01  1.073450446128845e+00  7.405494213104248e+00 2 1 1
81 4  2.093969844281673e-02  1.199634552001953e+00  7.795257091522217e+00 2 1 1
82 4 -3.346470594406128e-01  1.098007321357727e+00  8.185019493103027e+00 2 1 1
83 4 -5.630958080291748e-01  8.071789145469666e-01  8.574782371520996e+00 2 1 1
84 4 -5.776150226593018e-01  4.376397430896759e-01  8.964545249938965e+00 2 1 1
85 4 -3.726886808872223e-01  1.297839283943176e-01  9.354308128356934e+00 2 1 1
86 4 -2.617163211107254e-02  5.710670375265181e-04  9.744071006774902e+00 2 1 1
87 4  3.302884399890900e-01  9.909128397703171e-02  1.013383388519287e+01 2 1 1
88 4  5.612664222717285e-01  3.879151046276093e-01  1.052359676361084e+01 2 1 1
89 4  5.790098905563354e-01  7.573134899139404e-01  1.091335964202881e+01 2 1 1
90 4  3.767778277397156e-01  1.066945910453796e+00  1.130312252044678e+01 2 1 1
91 4  3.140157461166382e-02  1.199177742004395e+00  1.169288539886475e+01 2 1 1
92 4 -3.259046673774719e-01  1.103771924972534e+00  1.208264827728271e+01 2 1 1
93 4 -5.593942999839783e-01  8.169747591018677e-01  1.247241115570068e+01 2 1 1
94 4 -5.803606510162354e-01  4.477452337741852e-01  1.286217403411865e+01 2 1 1
95 4 -3.808383047580719e-01  1.363598555326462e-01  1.325193691253662e+01 2 1 1
96 4 -3.662912547588348e-02  1.119120977818966e-03  1.364169979095459e+01 2 1 1
97 4  3.214960694313049e-01  9.340324252843857e-02  1.403146266937256e+01 2 1 1
98 4  5.574795603752136e-01  3.781519532203674e-01  1.442122554779053e+01 2 1 1
99 4  5.816671848297119e-01  7.471844553947449e-01  1.481098842620850e+01 2 1 1
100 4  3.848697841167450e-01  1.060299038887024e+00  1.520075130462646e+01 2 1 1
101 4  4.185388609766960e-02  1.198538422584534e+00  1.559051418304443e+01 2 1 1
102 4 -3.170630037784576e-01  1.109382987022400e+00  1.598027706146240e+01 2 1 1
103 4 -5.555223226547241e-01  8.267044425010681e-01  1.637003898620605e+01 2 1 1
104 4 -5.829294919967651e-01  4.578971266746521e-01  1.675980186462402e+01 2 1 1
105 4 -3.888719379901886e-01  1.430770158767700e-01  1.714956474304199e+01 2 1 1
106 4 -4.707545787096024e-02  1.849599764682353e-03  1.753932762145996e+01 2 1 1
107 4  3.126057684421539e-01  8.786952495574951e-02  1.792909049987793e+01 2 1 1
108 4  5.535228252410889e-01  3.684563636779785e-01  1.831885337829590e+01 2 1 1
109 4  5.841473340988159e-01  7.370105385780334e-01  1.870861625671387e+01 2 1 1
110 4  3.928444981575012e-01  1.053512096405029e+00  1.909837913513184e+01 2 1 1
111 4  5.229344591498375e-02  1.197716832160950e+00  1.948814201354980e+01 2 1 1
112 4 -3.081247508525848e-01  1.114838957786560e+00  1.987790489196777e+01 2 1 1
113 4 -5.514811873435974e-01  8.363651633262634e-01  2.026766777038574e+01 2 1 1
114 4 -5.853207111358643e-01  4.680922627449036e-01  2.065743064880371e+01 2 1 1
115 4 -3.967871069908142e-01  1.499333530664444e-01  2.104719352722168e+01 2 1 1
116 4 -5.750745162367821e-02  2.762280870229006e-03  2.143695640563965e+01 2 1 1
117 4  3.036202490329742e-01  8.249180018901825e-02  2.182671928405762e+01 2 1 1
118 4  5.493975281715393e-01  3.588313460350037e-01  2.221648216247559e+01 2 1 1
119 4  5.864495635032654e-01  7.267948985099792e-01  2.260624504089355e+01 2 1 1
120 4  4.006995260715485e-01  1.046586871147156e+00  2.299600791931152e+01 2 1 1

# Atom-ID, translational, rotational velocity
Velocities

1  0.000000000000000e+00  0.000000000000000e+00  0.000000000000000e+00  0.000000000000000e+00  0.000000000000000e+00  0.000000000000000e+00
2  0.000000000000000e+00  0.000000000000000e+00  0.000000000000000e+00  0.000000000000000e+00  0.000000000000000e+00  0.000000000000000e+00
3  0.000000000000000e+00  0.000000000000000e+00  0.000000000000000e+00  0.000000000000000e+00  0.000000000000000e+00  0.000000000000000e+00
4  0.000000000000000e+00  0.000000000000000e+00  0.000000000000000e+00  0.000000000000000e+00  0.000000000000000e+00  0.000000000000000e+00
5  0.000000000000000e+00  0.000000000000000e+00  0.000000000000000e+00  0.000000000000000e+00  0.000000000000000e+00  0.000000000000000e+00
6  0.000000000000000e+00  0.000000000000000e+00  0.000000000000000e+00  0.000000000000000e+00  0.000000000000000e+00  0.000000000000000e+00
7  0.000000000000000e+00  0.000000000000000e+00  0.000000000000000e+00  0.000000000000000e+00  0.000000000000000e+00  0.000000000000000e+00
8  0.000000000000000e+00  0.000000000000000e+00  0.000000000000000e+00  0.000000000000000e+00  0.000000000000000e+00  0.000000000000000e+00
9  0.000000000000000e+00  0.000000000000000e+00  0.000000000000000e+00  0.000000000000000e+00  0.000000000000000e+00  0.000000000000000e+00
10  0.000000000000000e+00  0.000000000000000e+00  0.000000000000000e+00  0.000000000000000e+00  0.000000000000000e+00  0.000000000000000e+00
11  0.000000000000000e+00  0.000000000000000e+00  0.000000000000000e+00  0.000000000000000e+00  0.000000000000000e+00  0.000000000000000e+00
12  0.000000000000000e+00  0.000000000000000e+00  0.000000000000000e+00  0.000000000000000e+00  0.000000000000000e+00  0.000000000000000e+00
13  0.000000000000000e+00  0.000000000000000e+00  0.000000000000000e+00  0.000000000000000e+00  0.000000000000000e+00  0.000000000000000e+00
14  0.000000000000000e+00  0.000000000000000e+00  0.000000000000000e+00  0.000000000000000e+00  0.000000000000000e+00  0.000000000000000e+00
15  0.000000000000000e+00  0.000000000000000e+00  0.000000000000000e+00  0.000000000000000e+00  0.000000000000000e+00  0.000000000000000e+00
16  0.000000000000000e+00  0.000000000000000e+00  0.000000000000000e+00  0.000000000000000e+00  0.000000000000000e+00  0.000000000000000e+00
17  0.000000000000000e+00  0.000000000000000e+00  0.000000000000000e+00  0.000000000000000e+00  0.000000000000000e+00  0.000000000000000e+00
18  0.000000000000000e+00  0.000000000000000e+00  0.000000000000000e+00  0.000000000000000e+00  0.000000000000000e+00  0.000000000000000e+00
19  0.000000000000000e+00  0.000000000000000e+00  0.000000000000000e+00  0.000000000000000e+00  0.000000000000000e+00  0.000000000000000e+00
20  0.000000000000000e+00  0.000000000000000e+00  0.000000000000000e+00  0.000000000000000e+00  0.000000000000000e+00  0.000000000000000e+00
21  0.000000000000000e+00  0.000000000000000e+00  0.000000000000000e+00  0.000000000000000e+00  0.000000000000000e+00  0.000000000000000e+00
22  0.000000000000000e+00  0.000000000000000e+00  0.000000000000000e+00  0.000000000000000e+00  0.000000000000000e+00  0.000000000000000e+00
23  0.000000000000000e+00  0.000000000000000e+00  0.000000000000000e+00  0.000000000000000e+00  0.000000000000000e+00  0.000000000000000e+00
24  0.000000000000000e+00  0.000000000000000e+00  0.000000000000000e+00  0.000000000000000e+00  0.000000000000000e+00  0.000000000000000e+00
25  0.000000000000000e+00  0.000000000000000e+00  0.000000000000000e+00  0.000000000000000e+00  0.000000000000000e+00  0.000000000000000e+00
26  0.000000000000000e+00  0.000000000000000e+00  0.000000000000000e+00  0.000000000000000e+00  0.000000000000000e+00  0.000000000000000e+00
27  0.000000000000000e+00  0.000000000000000e+00  0.000000000000000e+00  0.000000000000000e+00  0.000000000000000e+00  0.000000000000000e+00
28  0.000000000000000e+00  0.000000000000000e+00  0.000000000000000e+00  0.000000000000000e+00  0.000000000000000e+00  0.000000000000000e+00
29  0.000000000000000e+00  0.000000000000000e+00  0.000000000000000e+00  0.000000000000000e+00  0.000000000000000e+00  0.000000000000000e+00
30  0.000000000000000e+00  0.000000000000000e+00  0.000000000000000e+00  0.000000000000000e+00  0.000000000000000e+00  0.000000000000000e+00
31  0.000000000000000e+00  0.000000000000000e+00  0.000000000000000e+00  0.000000000000000e+00  0.000000000000000e+00  0.000000000000000e+00
32  0.000000000000000e+00  0.000000000000000e+00  0.000000000000000e+00  0.000000000000000e+00  0.000000000000000e+00  0.000000000000000e+00
33  0.000000000000000e+00  0.000000000000000e+00  0.000000000000000e+00  0.000000000000000e+00  0.000000000000000e+00  0.000000000000000e+00
34  0.000000000000000e+00  0.000000000000000e+00  0.000000000000000e+00  0.000000000000000e+00  0.000000000000000e+00  0.000000000000000e+00
35  0.000000000000000e+00  0.000000000000000e+00  0.000000000000000e+00  0.000000000000000e+00  0.000000000000000e+00  0.000000000000000e+00
36  0.000000000000000e+00  0.000000000000000e+00  0.000000000000000e+00  0.000000000000000e+00  0.000000000000000e+00  0.000000000000000e+00
37  0.000000000000000e+00  0.000000000000000e+00  0.000000000000000e+00  0.000000000000000e+00  0.000000000000000e+00  0.000000000000000e+00
38  0.000000000000000e+00  0.000000000000000e+00  0.000000000000000e+00  0.000000000000000e+00  0.000000000000000e+00  0.000000000000000e+00
39  0.000000000000000e+00  0.000000000000000e+00  0.000000000000000e+00  0.000000000000000e+00  0.000000000000000e+00  0.000000000000000e+00
40  0.000000000000000e+00  0.000000000000000e+00  0.000000000000000e+00  0.000000000000000e+00  0.000000000000000e+00  0.000000000000000e+00
41  0.000000000000000e+00  0.000000000000000e+00  0.000000000000000e+00  0.000000000000000e+00  0.000000000000000e+00  0.000000000000000e+00
42  0.000000000000000e+00  0.000000000000000e+00  0.000000000000000e+00  0.000000000000000e+00  0.000000000000000e+00  0.000000000000000e+00
43  0.000000000000000e+00  0.000000000000000e+00  0.000000000000000e+00  0.000000000000000e+00  0.000000000000000e+00  0.000000000000000e+00
44  0.000000000000000e+00  0.000000000000000e+00  0.000000000000000e+00  0.000000000000000e+00  0.000000000000000e+00  0.000000000000000e+00
45  0.000000000000000e+00  0.000000000000000e+00  0.000000000000000e+00  0.000000000000000e+00  0.000000000000000e+00  0.000000000000000e+00
46  0.000000000000000e+00  0.000000000000000e+00  0.000000000000000e+00  0.000000000000000e+00  0.000000000000000e+00  0.000000000000000e+00
47  0.000000000000000e+00  0.000000000000000e+00  0.000000000000000e+00  0.000000000000000e+00  0.000000000000000e+00  0.000000000000000e+00
48  0.000000000000000e+00  0.000000000000000e+00  0.000000000000000e+00  0.000000000000000e+00  0.000000000000000e+00  0.000000000000000e+00
49  0.000000000000000e+00  0.000000000000000e+00  0.000000000000000e+00  0.000000000000000e+00  0.000000000000000e+00  0.000000000000000e+00
50  0.000000000000000e+00  0.000000000000000e+00  0.000000000000000e+00  0.000000000000000e+00  0.000000000000000e+00  0.000000000000000e+00
51  0.000000000000000e+00  0.000000000000000e+00  0.000000000000000e+00  0.000000000000000e+00  0.000000000000000e+00  0.000000000000000e+00
52  0.000000000000000e+00  0.000000000000000e+00  0.000000000000000e+00  0.000000000000000e+00  0.000000000000000e+00  0.000000000000000e+00
53  0.000000000000000e+00  0.000000000000000e+00  0.000000000000000e+00  0.000000000000000e+00  0.000000000000000e+00  0.000000000000000e+00
54  0.000000000000000e+00  0.000000000000000e+00  0.000000000000000e+00  0.000000000000000e+00  0.000000000000000e+00  0.000000000000000e+00
55  0.000000000000000e+00  0.000000000000000e+00  0.000000000000000e+00  0.000000000000000e+00  0.000000000000000e+00  0.000000000000000e+00
56  0.000000000000000e+00  0.000000000000000e+00  0.000000000000000e+00  0.000000000000000e+00  0.000000000000000e+00  0.000000000000000e+00
57  0.000000000000000e+00  0.000000000000000e+00  0.000000000000000e+00  0.000000000000000e+00  0.000000000000000e+00  0.000000000000000e+00
58  0.000000000000000e+00  0.000000000000000e+00  0.000000000000000e+00  0.000000000000000e+00  0.000000000000000e+00  0.000000000000000e+00
59  0.000000000000000e+00  0.000000000000000e+00  0.000000000000000e+00  0.000000000000000e+00  0.000000000000000e+00  0.000000000000000e+00
60  0.000000000000000e+00  0.000000000000000e+00  0.000000000000000e+00  0.000000000000000e+00  0.000000000000000e+00  0.000000000000000e+00
61  0.000000000000000e+00  0.000000000000000e+00  0.000000000000000e+00  0.000000000000000e+00  0.000000000000000e+00  0.000000000000000e+00
62  0.000000000000000e+00  0.000000000000000e+00  0.000000000000000e+00  0.000000000000000e+00  0.000000000000000e+00  0.000000000000000e+00
63  0.000000000000000e+00  0.000000000000000e+00  0.000000000000000e+00  0.000000000000000e+00  0.000000000000000e+00  0.000000000000000e+00
64  0.000000000000000e+00  0.000000000000000e+00  0.000000000000000e+00  0.000000000000000e+00  0.000000000000000e+00  0.000000000000000e+00
65  0.000000000000000e+00  0.000000000000000e+00  0.000000000000000e+00  0.000000000000000e+00  0.000000000000000e+00  0.000000000000000e+00
66  0.000000000000000e+00  0.000000000000000e+00  0.000000000000000e+00  0.000000000000000e+00  0.000000000000000e+00  0.000000000000000e+00
67  0.000000000000000e+00  0.000000000000000e+00  0.000000000000000e+00  0.000000000000000e+00  0.000000000000000e+00  0.000000000000000e+00
68  0.000000000000000e+00  0.000000000000000e+00  0.000000000000000e+00  0.000000000000000e+00  0.000000000000000e+00  0.000000000000000e+00
69  0.000000000000000e+00  0.000000000000000e+00  0.000000000000000e+00  0.000000000000000e+00  0.000000000000000e+00  0.000000000000000e+00
70  0.000000000000000e+00  0.000000000000000e+00  0.000000000000000e+00  0.000000000000000e+00  0.000000000000000e+00  0.000000000000000e+00
71  0.000000000000000e+00  0.000000000000000e+00  0.000000000000000e+00  0.000000000000000e+00  0.000000000000000e+00  0.000000000000000e+00
72  0.000000000000000e+00  0.000000000000000e+00  0.000000000000000e+00  0.000000000000000e+00  0.000000000000000e+00  0.000000000000000e+00
73  0.000000000000000e+00  0.000000000000000e+00  0.000000000000000e+00  0.000000000000000e+00  0.000000000000000e+00  0.000000000000000e+00
74  0.000000000000000e+00  0.000000000000000e+00  0.000000000000000e+00  0.000000000000000e+00  0.000000000000000e+00  0.000000000000000e+00
75  0.000000000000000e+00  0.000000000000000e+00  0.000000000000000e+00  0.000000000000000e+00  0.000000000000000e+00  0.000000000000000e+00
76  0.000000000000000e+00  0.000000000000000e+00  0.000000000000000e+00  0.000000000000000e+00  0.000000000000000e+00  0.000000000000000e+00
77  0.000000000000000e+00  0.000000000000000e+00  0.000000000000000e+00  0.000000000000000e+00  0.000000000000000e+00  0.000000000000000e+00
78  0.000000000000000e+00  0.000000000000000e+00  0.000000000000000e+00  0.000000000000000e+00  0.000000000000000e+00  0.000000000000000e+00
79  0.000000000000000e+00  0.000000000000000e+00  0.000000000000000e+00  0.000000000000000e+00  0.000000000000000e+00  0.000000000000000e+00
80  0.000000000000000e+00  0.000000000000000e+00  0.000000000000000e+00  0.000000000000000e+00  0.000000000000000e+00  0.000000000000000e+00
81  0.000000000000000e+00  0.000000000000000e+00  0.000000000000000e+00  0.000000000000000e+00  0.000000000000000e+00  0.000000000000000e+00
82  0.000000000000000e+00  0.000000000000000e+00  0.000000000000000e+00  0.000000000000000e+00  0.000000000000000e+00  0.000000000000000e+00
83  0.000000000000000e+00  0.000000000000000e+00  0.000000000000000e+00  0.000000000000000e+00  0.000000000000000e+00  0.000000000000000e+00
84  0.000000000000000e+00  0.000000000000000e+00  0.000000000000000e+00  0.000000000000000e+00  0.000000000000000e+00  0.000000000000000e+00
85  0.000000000000000e+00  0.000000000000000e+00  0.000000000000000e+00  0.000000000000000e+00  0.000000000000000e+00  0.000000000000000e+00
86  0.000000000000000e+00  0.000000000000000e+00  0.000000000000000e+00  0.000000000000000e+00  0.000000000000000e+00  0.000000000000000e+00
87  0.000000000000000e+00  0.000000000000000e+00  0.000000000000000e+00  0.000000000000000e+00  0.000000000000000e+00  0.000000000000000e+00
88  0.000000000000000e+00  0.000000000000000e+00  0.000000000000000e+00  0.000000000000000e+00  0.000000000000000e+00  0.000000000000000e+00
89  0.000000000000000e+00  0.000000000000000e+00  0.000000000000000e+00  0.000000000000000e+00  0.000000000000000e+00  0.000000000000000e+00
90  0.000000000000000e+00  0.000000000000000e+00  0.000000000000000e+00  0.000000000000000e+00  0.000000000000000e+00  0.000000000000000e+00
91  0.000000000000000e+00  0.000000000000000e+00  0.000000000000000e+00  0.000000000000000e+00  0.000000000000000e+00  0.000000000000000e+00
92  0.000000000000000e+00  0.000000000000000e+00  0.000000000000000e+00  0.000000000000000e+00  0.000000000000000e+00  0.000000000000000e+00
93  0.000000000000000e+00  0.000000000000000e+00  0.000000000000000e+00  0.000000000000000e+00  0.000000000000000e+00  0.000000000000000e+00
94  0.000000000000000e+00  0.000000000000000e+00  0.000000000000000e+00  0.000000000000000e+00  0.000000000000000e+00  0.000000000000000e+00
95  0.000000000000000e+00  0.000000000000000e+00  0.000000000000000e+00  0.000000000000000e+00  0.000000000000000e+00  0.000000000000000e+00
96  0.000000000000000e+00  0.000000000000000e+00  0.000000000000000e+00  0.000000000000000e+00  0.000000000000000e+00  0.000000000000000e+00
97  0.000000000000000e+00  0.000000000000000e+00  0.000000000000000e+00  0.000000000000000e+00  0.000000000000000e+00  0.000000000000000e+00
98  0.000000000000000e+00  0.000000000000000e+00  0.000000000000000e+00  0.000000000000000e+00  0.000000000000000e+00  0.000000000000000e+00
99  0.000000000000000e+00  0.000000000000000e+00  0.000000000000000e+00  0.000000000000000e+00  0.000000000000000e+00  0.000000000000000e+00
100  0.000000000000000e+00  0.000000000000000e+00  0.000000000000000e+00  0.000000000000000e+00  0.000000000000000e+00  0.000000000000000e+00
101  0.000000000000000e+00  0.000000000000000e+00  0.000000000000000e+00  0.000000000000000e+00  0.000000000000000e+00  0.000000000000000e+00
102  0.000000000000000e+00  0.000000000000000e+00  0.000000000000000e+00  0.000000000000000e+00  0.000000000000000e+00  0.000000000000000e+00
103  0.000000000000000e+00  0.000000000000000e+00  0.000000000000000e+00  0.000000000000000e+00  0.000000000000000e+00  0.000000000000000e+00
104  0.000000000000000e+00  0.000000000000000e+00  0.000000000000000e+00  0.000000000000000e+00  0.000000000000000e+00  0.000000000000000e+00
105  0.000000000000000e+00  0.000000000000000e+00  0.000000000000000e+00  0.000000000000000e+00  0.000000000000000e+00  0.000000000000000e+00
106  0.000000000000000e+00  0.000000000000000e+00  0.000000000000000e+00  0.000000000000000e+00  0.000000000000000e+00  0.000000000000000e+00
107  0.000000000000000e+00  0.000000000000000e+00  0.000000000000000e+00  0.000000000000000e+00  0.000000000000000e+00  0.000000000000000e+00
108  0.000000000000000e+00  0.000000000000000e+00  0.000000000000000e+00  0.000000000000000e+00  0.000000000000000e+00  0.000000000000000e+00
109  0.000000000000000e+00  0.000000000000000e+00  0.000000000000000e+00  0.000000000000000e+00  0.000000000000000e+00  0.000000000000000e+00
110  0.000000000000000e+00  0.000000000000000e+00  0.000000000000000e+00  0.000000000000000e+00  0.000000000000000e+00  0.000000000000000e+00
111  0.000000000000000e+00  0.000000000000000e+00  0.000000000000000e+00  0.000000000000000e+00  0.000000000000000e+00  0.000000000000000e+00
112  0.000000000000000e+00  0.000000000000000e+00  0.000000000000000e+00  0.000000000000000e+00  0.000000000000000e+00  0.000000000000000e+00
113  0.000000000000000e+00  0.000000000000000e+00  0.000000000000000e+00  0.000000000000000e+00  0.000000000000000e+00  0.000000000000000e+00
114  0.000000000000000e+00  0.000000000000000e+00  0.000000000000000e+00  0.000000000000000e+00  0.000000000000000e+00  0.000000000000000e+00
115  0.000000000000000e+00  0.000000000000000e+00  0.000000000000000e+00  0.000000000000000e+00  0.000000000000000e+00  0.000000000000000e+00
116  0.000000000000000e+00  0.000000000000000e+00  0.000000000000000e+00  0.000000000000000e+00  0.000000000000000e+00  0.000000000000000e+00
117  0.000000000000000e+00  0.000000000000000e+00  0.000000000000000e+00  0.000000000000000e+00  0.000000000000000e+00  0.000000000000000e+00
118  0.000000000000000e+00  0.000000000000000e+00  0.000000000000000e+00  0.000000000000000e+00  0.000000000000000e+00  0.000000000000000e+00
119  0.000000000000000e+00  0.000000000000000e+00  0.000000000000000e+00  0.000000000000000e+00  0.000000000000000e+00  0.000000000000000e+00
120  0.000000000000000e+00  0.000000000000000e+00  0.000000000000000e+00  0.000000000000000e+00  0.000000000000000e+00  0.000000000000000e+00

# Atom-ID, shape, quaternion
Ellipsoids

1  1.173984503142341e+00  1.173984503142341e+00  1.173984503142341e+00  0.000000000000000e+00  9.131901611032934e-01  4.075337159845072e-01  0.000000000000000e+00
2  1.173984503142341e+00  1.173984503142341e+00  1.173984503142341e+00  0.000000000000000e+00  9.943379464832041e-01  1.062640493467323e-01  0.000000000000000e+00
3  1.173984503142341e+00  1.173984503142341e+00  1.173984503142341e+00 -0.000000000000000e+00  9.786885693202001e-01 -2.053501504308675e-01  0.000000000000000e+00
4  1.173984503142341e+00  1.173984503142341e+00  1.173984503142341e+00 -0.000000000000000e+00  8.677654547280781e-01 -4.969739586543467e-01  0.000000000000000e+00
5  1.173984503142341e+00  1.173984503142341e+00  1.173984503142341e+00  0.000000000000000e+00  6.723668077974319e-01 -7.402181271573206e-01  0.000000000000000e+00
6  1.173984503142341e+00  1.173984503142341e+00  1.173984503142341e+00  0.000000000000000e+00 -4.115143212517958e-01  9.114032935011118e-01  0.000000000000000e+00
7  1.173984503142341e+00  1.173984503142341e+00  1.173984503142341e+00  0.000000000000000e+00 -1.106016749081233e-01  9.938648145032190e-01  0.000000000000000e+00
8  1.173984503142341e+00  1.173984503142341e+00  1.173984503142341e+00  0.000000000000000e+00  2.010779376263914e-01  9.795752462163981e-01  0.000000000000000e+00
9  1.173984503142341e+00  1.173984503142341e+00  1.173984503142341e+00  0.000000000000000e+00  4.931828978389854e-01  8.699256458336777e-01  0.000000000000000e+00
10  1.173984503142341e+00  1.173984503142341e+00  1.173984503142341e+00  0.000000000000000e+00  7.372773358802687e-01  6.755902086304194e-01  0.000000000000000e+00
11  1.173984503142341e+00  1.173984503142341e+00  1.173984503142341e+00  0.000000000000000e+00  9.095990482132653e-01  4.154871496081706e-01  0.000000000000000e+00
12  1.173984503142341e+00  1.173984503142341e+00  1.173984503142341e+00  0.000000000000000e+00  9.933727673437498e-01  1.149371354255027e-01  0.000000000000000e+00
13  1.173984503142341e+00  1.173984503142341e+00  1.173984503142341e+00 -0.000000000000000e+00  9.804432814346596e-01 -1.968018594669186e-01  0.000000000000000e+00
14  1.173984503142341e+00  1.173984503142341e+00  1.173984503142341e+00 -0.000000000000000e+00  8.720692554346201e-01 -4.893824820380347e-01  0.000000000000000e+00
15  1.173984503142341e+00  1.173984503142341e+00  1.173984503142341e+00  0.000000000000000e+00  6.788007447991445e-01 -7.343225101140007e-01  0.000000000000000e+00
16  1.173984503142341e+00  1.173984503142341e+00  1.173984503142341e+00  0.000000000000000e+00 -4.194521246889757e-01  9.077774590139943e-01  0.000000000000000e+00
17  1.173984503142341e+00  1.173984503142341e+00  1.173984503142341e+00  0.000000000000000e+00 -1.192703808561808e-01  9.928618112559381e-01  0.000000000000000e+00
18  1.173984503142341e+00  1.173984503142341e+00  1.173984503142341e+00  0.000000000000000e+00  1.925219755464162e-01  9.812926622224917e-01  0.000000000000000e+00