ITEM: TIMESTEP
0
ITEM: NUMBER OF ATOMS
120
ITEM: BOX BOUNDS pp pp pp
0.0000000000000000e+00 2.0000000000000000e+02
0.0000000000000000e+00 2.0000000000000000e+02
0.0000000000000000e+00 2.0000000000000000e+02
ITEM: ATOMS id mol type x y z ix iy iz vx vy vz c_quat[1] c_quat[2] c_quat[3] c_quat[4] angmomx angmomy angmomz
1 1 1  1.995993004739285e+02  1.534130722284317e-01  2.299600791931152e+01 -1 0 0  0.000000000000000e+00  0.000000000000000e+00  0.000000000000000e+00  0.000000000000000e+00  9.131901611032934e-01  4.075337159845072e-01  0.000000000000000e+00  0.000000000000000e+00  0.000000000000000e+00  0.000000000000000e+00
2 1 1  1.994135504364967e+02  4.732051193714142e-01  2.260624504089355e+01 -1 0 0  0.000000000000000e+00  0.000000000000000e+00  0.000000000000000e+00  0.000000000000000e+00  9.943379464832041e-01  1.062640493467323e-01  0.000000000000000e+00  0.000000000000000e+00  0.000000000000000e+00  0.000000000000000e+00
3 1 1  1.994506024718285e+02  8.411686420440674e-01  2.221648216247559e+01 -1 0 0  0.000000000000000e+00  0.000000000000000e+00  0.000000000000000e+00 -0.000000000000000e+00  9.786885693202001e-01 -2.053501504308675e-01  0.000000000000000e+00  0.000000000000000e+00  0.000000000000000e+00  0.000000000000000e+00
4 1 1  1.996963797509670e+02  1.117508172988892e+00  2.182671928405762e+01 -1 0 0  0.000000000000000e+00  0.000000000000000e+00  0.000000000000000e+00 -0.000000000000000e+00  8.677654547280779e-01 -4.969739586543466e-01  0.000000000000000e+00  0.000000000000000e+00  0.000000000000000e+00  0.000000000000000e+00
5 1 1  5.750745162367821e-02  1.197237730026245e+00  2.143695640563965e+01 0 0 0  0.000000000000000e+00  0.000000000000000e+00  0.000000000000000e+00  0.000000000000000e+00  6.723668077974320e-01 -7.402181271573207e-01  0.000000000000000e+00  0.000000000000000e+00  0.000000000000000e+00  0.000000000000000e+00
6 1 1  3.967871069908142e-01  1.050066590309143e+00  2.104719352722168e+01 0 0 0  0.000000000000000e+00  0.000000000000000e+00  0.000000000000000e+00  0.000000000000000e+00 -4.115143212517958e-01  9.114032935011118e-01  0.000000000000000e+00  0.000000000000000e+00  0.000000000000000e+00  0.000000000000000e+00
7 1 1  5.853207111358643e-01  7.319077253341675e-01  2.065743064880371e+01 0 0 0  0.000000000000000e+00  0.000000000000000e+00  0.000000000000000e+00  0.000000000000000e+00 -1.106016749081233e-01  9.938648145032190e-01  0.000000000000000e+00  0.000000000000000e+00  0.000000000000000e+00  0.000000000000000e+00
8 1 1  5.514811873435974e-01  3.636348545551300e-01  2.026766777038574e+01 0 0 0  0.000000000000000e+00  0.000000000000000e+00  0.000000000000000e+00  0.000000000000000e+00  2.010779376263914e-01  9.795752462163981e-01  0.000000000000000e+00  0.000000000000000e+00  0.000000000000000e+00  0.000000000000000e+00
9 1 1  3.081247508525848e-01  8.516106009483337e-02  1.987790489196777e+01 0 0 0  0.000000000000000e+00  0.000000000000000e+00  0.000000000000000e+00  0.000000000000000e+00  4.931828978389853e-01  8.699256458336775e-01  0.000000000000000e+00  0.000000000000000e+00  0.000000000000000e+00  0.000000000000000e+00
10 1 1  1.999477065540850e+02  2.283181063830853e-03  1.948814201354980e+01 -1 0 0  0.000000000000000e+00  0.000000000000000e+00  0.000000000000000e+00  0.000000000000000e+00  7.372773358802687e-01  6.755902086304194e-01  0.000000000000000e+00  0.000000000000000e+00  0.000000000000000e+00  0.000000000000000e+00
11 1 1  1.996071555018425e+02  1.464879214763641e-01  1.909837913513184e+01 -1 0 0  0.000000000000000e+00  0.000000000000000e+00  0.000000000000000e+00  0.000000000000000e+00  9.095990482132651e-01  4.154871496081705e-01  0.000000000000000e+00  0.000000000000000e+00  0.000000000000000e+00  0.000000000000000e+00
12 1 1  1.994158526659012e+02  4.629894793033600e-01  1.870861625671387e+01 -1 0 0  0.000000000000000e+00  0.000000000000000e+00  0.000000000000000e+00  0.000000000000000e+00  9.933727673437498e-01  1.149371354255027e-01  0.000000000000000e+00  0.000000000000000e+00  0.000000000000000e+00  0.000000000000000e+00
13 1 1  1.994464771747589e+02  8.315436244010925e-01  1.831885337829590e+01 -1 0 0  0.000000000000000e+00  0.000000000000000e+00  0.000000000000000e+00 -0.000000000000000e+00  9.804432814346596e-01 -1.968018594669186e-01  0.000000000000000e+00  0.000000000000000e+00  0.000000000000000e+00  0.000000000000000e+00
14 1 1  1.996873942315578e+02  1.112130522727966e+00  1.792909049987793e+01 -1 0 0  0.000000000000000e+00  0.000000000000000e+00  0.000000000000000e+00 -0.000000000000000e+00  8.720692554346201e-01 -4.893824820380347e-01  0.000000000000000e+00  0.000000000000000e+00  0.000000000000000e+00  0.000000000000000e+00
15 1 1  4.707545787096024e-02  1.198150396347046e+00  1.753932762145996e+01 0 0 0  0.000000000000000e+00  0.000000000000000e+00  0.000000000000000e+00  0.000000000000000e+00  6.788007447991445e-01 -7.343225101140007e-01  0.000000000000000e+00  0.000000000000000e+00  0.000000000000000e+00  0.000000000000000e+00
16 1 1  3.888719379901886e-01  1.056923031806946e+00  1.714956474304199e+01 0 0 0  0.000000000000000e+00  0.000000000000000e+00  0.000000000000000e+00  0.000000000000000e+00 -4.194521246889757e-01  9.077774590139943e-01  0.000000000000000e+00  0.000000000000000e+00  0.000000000000000e+00  0.000000000000000e+00
17 1 1  5.829294919967651e-01  7.421028614044189e-01  1.675980186462402e+01 0 0 0  0.000000000000000e+00  0.000000000000000e+00  0.000000000000000e+00  0.000000000000000e+00 -1.192703808561808e-01  9.928618112559379e-01  0.000000000000000e+00  0.000000000000000e+00  0.000000000000000e+00  0.000000000000000e+00
18 1 1  5.555223226547241e-01  3.732955157756805e-01  1.637003898620605e+01 0 0 0  0.000000000000000e+00  0.000000000000000e+00  0.000000000000000e+00  0.000000000000000e+00  1.925219755464162e-01  9.812926622224917e-01  0.000000000000000e+00  0.000000000000000e+00  0.000000000000000e+00  0.000000000000000e+00
19 1 1  3.170630037784576e-01  9.061698615550995e-02  1.598027706146240e+01 0 0 0  0.000000000000000e+00  0.000000000000000e+00  0.000000000000000e+00  0.000000000000000e+00  4.855726925076661e-01  8.741962939127891e-01  0.000000000000000e+00  0.000000000000000e+00  0.000000000000000e+00  0.000000000000000e+00
20 1 1  1.999581461139023e+02  1.461569801904261e-03  1.559051418304443e+01 -1 0 0  0.000000000000000e+00  0.000000000000000e+00  0.000000000000000e+00  0.000000000000000e+00  7.313537032527171e-01  6.819983583107342e-01  0.000000000000000e+00  0.000000000000000e+00  0.000000000000000e+00  0.000000000000000e+00
21 1 1  1.996151302158833e+02  1.397009044885635e-01  1.520075130462646e+01 -1 0 0  0.000000000000000e+00  0.000000000000000e+00  0.000000000000000e+00  0.000000000000000e+00  9.059386400592414e-01  4.234089990158597e-01  0.000000000000000e+00  0.000000000000000e+00  0.000000000000000e+00  0.000000000000000e+00
22 1 1  1.994183328151703e+02  4.528155624866486e-01  1.481098842620850e+01 -1 0 0  0.000000000000000e+00  0.000000000000000e+00  0.000000000000000e+00  0.000000000000000e+00  9.923319325964659e-01  1.236015192032984e-01  0.000000000000000e+00  0.000000000000000e+00  0.000000000000000e+00  0.000000000000000e+00
23 1 1  1.994425204396248e+02  8.218480348587036e-01  1.442122554779053e+01 -1 0 0  0.000000000000000e+00  0.000000000000000e+00  0.000000000000000e+00 -0.000000000000000e+00  9.821233638718901e-01 -1.882384077093805e-01  0.000000000000000e+00  0.000000000000000e+00  0.000000000000000e+00  0.000000000000000e+00
24 1 1  1.996785039305687e+02  1.106596708297729e+00  1.403146266937256e+01 -1 0 0  0.000000000000000e+00  0.000000000000000e+00  0.000000000000000e+00 -0.000000000000000e+00  8.763066914596775e-01 -4.817536533364262e-01  0.000000000000000e+00  0.000000000000000e+00  0.000000000000000e+00  0.000000000000000e+00
25 1 1  3.662912547588348e-02  1.198880910873413e+00  1.364169979095459e+01 0 0 0  0.000000000000000e+00  0.000000000000000e+00  0.000000000000000e+00  0.000000000000000e+00  6.851829912031762e-01 -7.283709690575731e-01  0.000000000000000e+00  0.000000000000000e+00  0.000000000000000e+00  0.000000000000000e+00
26 1 1  3.808383047580719e-01  1.063640117645264e+00  1.325193691253662e+01 0 0 0  0.000000000000000e+00  0.000000000000000e+00  0.000000000000000e+00  0.000000000000000e+00 -4.273578597666145e-01  9.040825513722177e-01  0.000000000000000e+00  0.000000000000000e+00  0.000000000000000e+00  0.000000000000000e+00
27 1 1  5.803606510162354e-01  7.522547841072083e-01  1.286217403411865e+01 0 0 0  0.000000000000000e+00  0.000000000000000e+00  0.000000000000000e+00  0.000000000000000e+00 -1.279301700780346e-01  9.917831777076104e-01  0.000000000000000e+00  0.000000000000000e+00  0.000000000000000e+00  0.000000000000000e+00
28 1 1  5.593942999839783e-01  3.830252587795258e-01  1.247241115570068e+01 0 0 0  0.000000000000000e+00  0.000000000000000e+00  0.000000000000000e+00  0.000000000000000e+00  1.839513466902709e-01  9.829353498836207e-01  0.000000000000000e+00  0.000000000000000e+00  0.000000000000000e+00  0.000000000000000e+00
29 1 1  3.259046673774719e-01  9.622807800769806e-02  1.208264827728271e+01 0 0 0  0.000000000000000e+00  0.000000000000000e+00  0.000000000000000e+00  0.000000000000000e+00  4.779255004923112e-01  8.784003733942594e-01  0.000000000000000e+00  0.000000000000000e+00  0.000000000000000e+00  0.000000000000000e+00
30 1 1  1.999685984253883e+02  8.222791366279125e-04  1.169288539886475e+01 -1 0 0  0.000000000000000e+00  0.000000000000000e+00  0.000000000000000e+00  0.000000000000000e+00  7.253743715552593e-01  6.883545751215812e-01  0.000000000000000e+00  0.000000000000000e+00  0.000000000000000e+00  0.000000000000000e+00
31 1 1  1.996232221722603e+02  1.330541074275970e-01  1.130312252044678e+01 -1 0 0  0.000000000000000e+00  0.000000000000000e+00  0.000000000000000e+00  0.000000000000000e+00  9.022092462831953e-01  4.312985925331876e-01  0.000000000000000e+00  0.000000000000000e+00  0.000000000000000e+00  0.000000000000000e+00
32 1 1  1.994209901094437e+02  4.426864981651306e-01  1.091335964202881e+01 -1 0 0  0.000000000000000e+00  0.000000000000000e+00  0.000000000000000e+00  0.000000000000000e+00  9.912155381076949e-01  1.322564063245057e-01  0.000000000000000e+00  0.000000000000000e+00  0.000000000000000e+00  0.000000000000000e+00
33 1 1  1.994387335777283e+02  8.120849132537842e-01  1.052359676361084e+01 -1 0 0  0.000000000000000e+00  0.000000000000000e+00  0.000000000000000e+00 -0.000000000000000e+00  9.837286235564533e-01 -1.796607781228995e-01  0.000000000000000e+00  0.000000000000000e+00  0.000000000000000e+00  0.000000000000000e+00
34 1 1  1.996697115600109e+02  1.100908756256104e+00  1.013383388519287e+01 -1 0 0  0.000000000000000e+00  0.000000000000000e+00  0.000000000000000e+00 -0.000000000000000e+00  8.804773348339614e-01 -4.740882437307261e-01  0.000000000000000e+00  0.000000000000000e+00  0.000000000000000e+00  0.000000000000000e+00
35 1 1  2.617163211107254e-02  1.199428915977478e+00  9.744071006774902e+00 0 0 0  0.000000000000000e+00  0.000000000000000e+00  0.000000000000000e+00  0.000000000000000e+00  6.915130556784508e-01 -7.223639621591404e-01  0.000000000000000e+00  0.000000000000000e+00  0.000000000000000e+00  0.000000000000000e+00
36 1 1  3.726886808872223e-01  1.070216059684753e+00  9.354308128356934e+00 0 0 0  0.000000000000000e+00  0.000000000000000e+00  0.000000000000000e+00  0.000000000000000e+00 -4.352310995135082e-01  9.003187713339443e-01  0.000000000000000e+00  0.000000000000000e+00  0.000000000000000e+00  0.000000000000000e+00
37 1 1  5.776150226593018e-01  7.623602747917175e-01  8.964545249938965e+00 0 0 0  0.000000000000000e+00  0.000000000000000e+00  0.000000000000000e+00  0.000000000000000e+00 -1.365801306627798e-01  9.906290263807830e-01  0.000000000000000e+00  0.000000000000000e+00  0.000000000000000e+00  0.000000000000000e+00
38 1 1  5.630958080291748e-01  3.928210735321045e-01  8.574782371520996e+00 0 0 0  0.000000000000000e+00  0.000000000000000e+00  0.000000000000000e+00  0.000000000000000e+00  1.753667285392832e-01  9.845031795385070e-01  0.000000000000000e+00  0.000000000000000e+00  0.000000000000000e+00  0.000000000000000e+00
39 1 1  3.346470594406128e-01  1.019926294684410e-01  8.185019493103027e+00 0 0 0  0.000000000000000e+00  0.000000000000000e+00  0.000000000000000e+00  0.000000000000000e+00  4.702419035553633e-01  8.825375641527268e-01  0.000000000000000e+00  0.000000000000000e+00  0.000000000000000e+00  0.000000000000000e+00
40 1 1  1.999790603015572e+02  3.655038017313927e-04  7.795257091522217e+00 -1 0 0  0.000000000000000e+00  0.000000000000000e+00  0.000000000000000e+00  0.000000000000000e+00  7.193398004840579e-01  6.946583703084243e-01  0.000000000000000e+00  0.000000000000000e+00  0.000000000000000e+00  0.000000000000000e+00
41 1 1  1.996314288675785e+02  1.265495419502258e-01  7.405494213104248e+00 -1 0 0  0.000000000000000e+00  0.000000000000000e+00  0.000000000000000e+00  0.000000000000000e+00  8.984111507982228e-01  4.391553302891962e-01  0.000000000000000e+00  0.000000000000000e+00  0.000000000000000e+00  0.000000000000000e+00
42 1 1  1.994238237738609e+02  4.326053261756897e-01  7.015731334686279e+00 -1 0 0  0.000000000000000e+00  0.000000000000000e+00  0.000000000000000e+00  0.000000000000000e+00  9.900236543606923e-01  1.409012555171191e-01  0.000000000000000e+00  0.000000000000000e+00  0.000000000000000e+00  0.000000000000000e+00
43 1 1  1.994351176619530e+02  8.022571802139282e-01  6.625968456268311e+00 -1 0 0  0.000000000000000e+00  0.000000000000000e+00  0.000000000000000e+00 -0.000000000000000e+00  9.852589878372884e-01 -1.710693627913601e-01  0.000000000000000e+00  0.000000000000000e+00  0.000000000000000e+00  0.000000000000000e+00
44 1 1  1.996610198020935e+02  1.095068097114563e+00  6.236205577850342e+00 -1 0 0  0.000000000000000e+00  0.000000000000000e+00  0.000000000000000e+00 -0.000000000000000e+00  8.845809705934080e-01 -4.663866491056795e-01  0.000000000000000e+00  0.000000000000000e+00  0.000000000000000e+00  0.000000000000000e+00
45 1 1  1.570616848766804e-02  1.199794411659241e+00  5.846442699432373e+00 0 0 0  0.000000000000000e+00  0.000000000000000e+00  0.000000000000000e+00  0.000000000000000e+00  6.977904607698200e-01 -7.163019425205005e-01  0.000000000000000e+00  0.000000000000000e+00  0.000000000000000e+00  0.000000000000000e+00
46 1 1  3.644255101680756e-01  1.076648831367493e+00  5.456679821014404e+00 0 0 0  0.000000000000000e+00  0.000000000000000e+00  0.000000000000000e+00  0.000000000000000e+00 -4.430712143510990e-01  8.964864187557126e-01  0.000000000000000e+00  0.000000000000000e+00  0.000000000000000e+00  0.000000000000000e+00
47 1 1  5.746935009956360e-01  7.724162936210632e-01  5.066916942596436e+00 0 0 0  0.000000000000000e+00  0.000000000000000e+00  0.000000000000000e+00  0.000000000000000e+00 -1.452196123013818e-01  9.893994462314180e-01  0.000000000000000e+00  0.000000000000000e+00  0.000000000000000e+00  0.000000000000000e+00
48 1 1  5.666258335113525e-01  4.026800096035004e-01  4.677154064178467e+00 0 0 0  0.000000000000000e+00  0.000000000000000e+00  0.000000000000000e+00  0.000000000000000e+00  1.667687272690841e-01  9.859960403597217e-01  0.000000000000000e+00  0.000000000000000e+00  0.000000000000000e+00  0.000000000000000e+00
49 1 1  3.432875275611877e-01  1.079088747501373e-01  4.287391185760498e+00 0 0 0  0.000000000000000e+00  0.000000000000000e+00  0.000000000000000e+00  0.000000000000000e+00  4.625224955401697e-01  8.866075462792394e-01  0.000000000000000e+00  0.000000000000000e+00  0.000000000000000e+00  0.000000000000000e+00
50 1 1  1.999895285563543e+02  9.138290624832734e-05  3.897628545761108e+00 -1 0 0  0.000000000000000e+00  0.000000000000000e+00  0.000000000000000e+00  0.000000000000000e+00  7.132504489142942e-01  7.009092645439621e-01  0.000000000000000e+00  0.000000000000000e+00  0.000000000000000e+00  0.000000000000000e+00
51 1 1  1.996397478580475e+02  1.201892048120499e-01  3.507865667343140e+00 -1 0 0  0.000000000000000e+00  0.000000000000000e+00  0.000000000000000e+00  0.000000000000000e+00  8.945446448286388e-01  4.469786106833351e-01  0.000000000000000e+00  0.000000000000000e+00  0.000000000000000e+00  0.000000000000000e+00
52 1 1  1.994268329739571e+02  4.225751757621765e-01  3.118102788925171e+00 -1 0 0  0.000000000000000e+00  0.000000000000000e+00  0.000000000000000e+00  0.000000000000000e+00  9.887563830433087e-01  1.495353302437715e-01  0.000000000000000e+00  0.000000000000000e+00  0.000000000000000e+00  0.000000000000000e+00
53 1 1  1.994316738247871e+02  7.923678159713745e-01  2.728339910507202e+00 -1 0 0  0.000000000000000e+00  0.000000000000000e+00  0.000000000000000e+00 -0.000000000000000e+00  9.867143080562361e-01 -1.624649940051802e-01  0.000000000000000e+00  0.000000000000000e+00  0.000000000000000e+00  0.000000000000000e+00
54 1 1  1.996524313092232e+02  1.089076638221741e+00  2.338577032089233e+00 -1 0 0  0.000000000000000e+00  0.000000000000000e+00  0.000000000000000e+00 -0.000000000000000e+00  8.886172457983054e-01 -4.586495290195274e-01  0.000000000000000e+00  0.000000000000000e+00  0.000000000000000e+00  0.000000000000000e+00
55 1 1  5.235921125859022e-03  1.199977159500122e+00  1.948814272880554e+00 0 0 0  0.000000000000000e+00  0.000000000000000e+00  0.000000000000000e+00  0.000000000000000e+00  7.040147246873646e-01 -7.101853753938997e-01  0.000000000000000e+00  0.000000000000000e+00  0.000000000000000e+00  0.000000000000000e+00
56 1 1  3.560513257980347e-01  1.082936286926270e+00  1.559051394462585e+00 0 0 0  0.000000000000000e+00  0.000000000000000e+00  0.000000000000000e+00  0.000000000000000e+00 -4.508775529986651e-01  8.925858122342837e-01  0.000000000000000e+00  0.000000000000000e+00  0.000000000000000e+00  0.000000000000000e+00
57 1 1  5.715968608856201e-01  7.824198603630066e-01  1.169288516044617e+00 0 0 0  0.000000000000000e+00  0.000000000000000e+00  0.000000000000000e+00  0.000000000000000e+00 -1.538482273085124e-01  9.880944909035918e-01  0.000000000000000e+00  0.000000000000000e+00  0.000000000000000e+00  0.000000000000000e+00
58 1 1  5.699832439422607e-01  4.125990569591522e-01  7.795256972312927e-01 0 0 0  0.000000000000000e+00  0.000000000000000e+00  0.000000000000000e+00  0.000000000000000e+00  1.581580859707744e-01  9.874138037530472e-01  0.000000000000000e+00  0.000000000000000e+00  0.000000000000000e+00  0.000000000000000e+00
59 1 1  3.518234193325043e-01  1.139750182628632e-01  3.897628486156464e-01 0 0 0  0.000000000000000e+00  0.000000000000000e+00  0.000000000000000e+00  0.000000000000000e+00  4.547678740184743e-01  8.906100048622388e-01  0.000000000000000e+00  0.000000000000000e+00  0.000000000000000e+00  0.000000000000000e+00
60 1 1  0.000000000000000e+00  0.000000000000000e+00  0.000000000000000e+00 0 0 0  0.000000000000000e+00  0.000000000000000e+00  0.000000000000000e+00  0.000000000000000e+00  7.071067811865476e-01  7.071067811865475e-01  0.000000000000000e+00  0.000000000000000e+00  0.000000000000000e+00  0.000000000000000e+00
61 2 4  0.000000000000000e+00  1.200000047683716e+00  0.000000000000000e+00 0 0 0  0.000000000000000e+00  0.000000000000000e+00  0.000000000000000e+00  7.071067811865476e-01 -0.000000000000000e+00  0.000000000000000e+00 -7.071067811865475e-01  0.000000000000000e+00  0.000000000000000e+00  0.000000000000000e+00
62 2 4  1.996481765806675e+02  1.086024999618530e+00  3.897628486156464e-01 -1 0 0  0.000000000000000e+00  0.000000000000000e+00  0.000000000000000e+00  8.906099949282569e-01 -0.000000000000000e+00  0.000000000000000e+00 -4.547678934730224e-01  0.000000000000000e+00  0.000000000000000e+00  0.000000000000000e+00
63 2 4  1.994300167560577e+02  7.874009609222412e-01  7.795256972312927e-01 -1 0 0  0.000000000000000e+00  0.000000000000000e+00  0.000000000000000e+00  9.874138093501371e-01 -0.000000000000000e+00  0.000000000000000e+00 -1.581580510269746e-01  0.000000000000000e+00  0.000000000000000e+00  0.000000000000000e+00
64 2 4  1.994284031391144e+02  4.175801575183868e-01  1.169288516044617e+00 -1 0 0  0.000000000000000e+00  0.000000000000000e+00  0.000000000000000e+00  9.880944963635735e-01  0.000000000000000e+00  0.000000000000000e+00  1.538481922416252e-01  0.000000000000000e+00  0.000000000000000e+00  0.000000000000000e+00
65 2 4  1.996439486742020e+02  1.170637235045433e-01  1.559051394462585e+00 -1 0 0  0.000000000000000e+00  0.000000000000000e+00  0.000000000000000e+00  8.925858197098029e-01  0.000000000000000e+00  0.000000000000000e+00  4.508775381996528e-01  0.000000000000000e+00  0.000000000000000e+00  0.000000000000000e+00
66 2 4  1.999947640788741e+02  2.284616130054928e-05  1.948814272880554e+00 -1 0 0  0.000000000000000e+00  0.000000000000000e+00  0.000000000000000e+00  7.101853755289236e-01  0.000000000000000e+00  0.000000000000000e+00  7.040147245511572e-01  0.000000000000000e+00  0.000000000000000e+00  0.000000000000000e+00
67 2 4  3.475686907768250e-01  1.109233200550079e-01  2.338577032089233e+00 0 0 0  0.000000000000000e+00  0.000000000000000e+00  0.000000000000000e+00  4.586495673720832e-01  0.000000000000000e+00  0.000000000000000e+00  8.886172260030757e-01  0.000000000000000e+00  0.000000000000000e+00  0.000000000000000e+00
68 2 4  5.683261752128601e-01  4.076322019100189e-01  2.728339910507202e+00 0 0 0  0.000000000000000e+00  0.000000000000000e+00  0.000000000000000e+00  1.624649591876529e-01  0.000000000000000e+00  0.000000000000000e+00  9.867143137890290e-01  0.000000000000000e+00  0.000000000000000e+00  0.000000000000000e+00
69 2 4  5.731670260429382e-01  7.774248123168945e-01  3.118102788925171e+00 0 0 0  0.000000000000000e+00  0.000000000000000e+00  0.000000000000000e+00 -1.495353302437715e-01  0.000000000000000e+00  0.000000000000000e+00  9.887563830433087e-01  0.000000000000000e+00  0.000000000000000e+00  0.000000000000000e+00
70 2 4  3.602521419525146e-01  1.079810738563538e+00  3.507865667343140e+00 0 0 0  0.000000000000000e+00  0.000000000000000e+00  0.000000000000000e+00 -4.469785806703790e-01  0.000000000000000e+00  0.000000000000000e+00  8.945446598252621e-01  0.000000000000000e+00  0.000000000000000e+00  0.000000000000000e+00
71 2 4  1.047144364565611e-02  1.199908614158630e+00  3.897628545761108e+00 0 0 0  0.000000000000000e+00  0.000000000000000e+00  0.000000000000000e+00  7.009092642200587e-01  0.000000000000000e+00  0.000000000000000e+00 -7.132504492325933e-01  0.000000000000000e+00  0.000000000000000e+00  0.000000000000000e+00
72 2 4  1.996567124724388e+02  1.092091083526611e+00  4.287391185760498e+00 -1 0 0  0.000000000000000e+00  0.000000000000000e+00  0.000000000000000e+00  8.866075659957380e-01 -0.000000000000000e+00  0.000000000000000e+00 -4.625224577456896e-01  0.000000000000000e+00  0.000000000000000e+00  0.000000000000000e+00
73 2 4  1.994333741664886e+02  7.973200082778931e-01  4.677154064178467e+00 -1 0 0  0.000000000000000e+00  0.000000000000000e+00  0.000000000000000e+00  9.859960344926706e-01 -0.000000000000000e+00  0.000000000000000e+00 -1.667687619571743e-01  0.000000000000000e+00  0.000000000000000e+00  0.000000000000000e+00
74 2 4  1.994253064990044e+02  4.275836944580078e-01  5.066916942596436e+00 -1 0 0  0.000000000000000e+00  0.000000000000000e+00  0.000000000000000e+00  9.893994358680590e-01  0.000000000000000e+00  0.000000000000000e+00  1.452196829082288e-01  0.000000000000000e+00  0.000000000000000e+00  0.000000000000000e+00
75 2 4  1.996355744898319e+02  1.233512312173843e-01  5.456679821014404e+00 -1 0 0  0.000000000000000e+00  0.000000000000000e+00  0.000000000000000e+00  8.964864337934458e-01  0.000000000000000e+00  0.000000000000000e+00  4.430711839245583e-01  0.000000000000000e+00  0.000000000000000e+00  0.000000000000000e+00
76 2 4  1.999842938315123e+02  2.056050143437460e-04  5.846442699432373e+00 -1 0 0  0.000000000000000e+00  0.000000000000000e+00  0.000000000000000e+00  7.163019431733856e-01  0.000000000000000e+00  0.000000000000000e+00  6.977904600996147e-01  0.000000000000000e+00  0.000000000000000e+00  0.000000000000000e+00
77 2 4  3.389801979064941e-01  1.049318984150887e-01  6.236205577850342e+00 0 0 0  0.000000000000000e+00  0.000000000000000e+00  0.000000000000000e+00  4.663866444513106e-01  0.000000000000000e+00  0.000000000000000e+00  8.845809730473784e-01  0.000000000000000e+00  0.000000000000000e+00  0.000000000000000e+00
78 2 4  5.648823380470276e-01  3.977428376674652e-01  6.625968456268311e+00 0 0 0  0.000000000000000e+00  0.000000000000000e+00  0.000000000000000e+00  1.710693973468651e-01  0.000000000000000e+00  0.000000000000000e+00  9.852589818374560e-01  0.000000000000000e+00  0.000000000000000e+00  0.000000000000000e+00
79 2 4  5.761762261390686e-01  7.673946619033813e-01  7.015731334686279e+00 0 0 0  0.000000000000000e+00  0.000000000000000e+00  0.000000000000000e+00 -1.409012555171191e-01  0.000000000000000e+00  0.000000000000000e+00  9.900236543606923e-01  0.000000000000000e+00  0.000000000000000e+00  0.000000000000000e+00
80 2 4  3.685711324214935e-01  1.073450446128845e+00  7.405494213104248e+00 0 0 0  0.000000000000000e+00  0.000000000000000e+00  0.000000000000000e+00 -4.391553302891962e-01  0.000000000000000e+00  0.000000000000000e+00  8.984111507982228e-01  0.000000000000000e+00  0.000000000000000e+00  0.000000000000000e+00
81 2 4  2.093969844281673e-02  1.199634552001953e+00  7.795257091522217e+00 0 0 0  0.000000000000000e+00  0.000000000000000e+00  0.000000000000000e+00  6.946583714984540e-01  0.000000000000000e+00  0.000000000000000e+00 -7.193397993348596e-01  0.000000000000000e+00  0.000000000000000e+00  0.000000000000000e+00
82 2 4  1.996653529405594e+02  1.098007321357727e+00  8.185019493103027e+00 -1 0 0  0.000000000000000e+00  0.000000000000000e+00  0.000000000000000e+00  8.825375861363757e-01 -0.000000000000000e+00  0.000000000000000e+00 -4.702418622970304e-01  0.000000000000000e+00  0.000000000000000e+00  0.000000000000000e+00
83 2 4  1.994369041919708e+02  8.071789145469666e-01  8.574782371520996e+00 -1 0 0  0.000000000000000e+00  0.000000000000000e+00  0.000000000000000e+00  9.845031795385067e-01 -0.000000000000000e+00  0.000000000000000e+00 -1.753667285392832e-01  0.000000000000000e+00  0.000000000000000e+00  0.000000000000000e+00
84 2 4  1.994223849773407e+02  4.376397430896759e-01  8.964545249938965e+00 -1 0 0  0.000000000000000e+00  0.000000000000000e+00  0.000000000000000e+00  9.906290312789644e-01  0.000000000000000e+00  0.000000000000000e+00  1.365800951357869e-01  0.000000000000000e+00  0.000000000000000e+00  0.000000000000000e+00
85 2 4  1.996273113191128e+02  1.297839283943176e-01  9.354308128356934e+00 -1 0 0  0.000000000000000e+00  0.000000000000000e+00  0.000000000000000e+00  9.003187814049993e-01  0.000000000000000e+00  0.000000000000000e+00  4.352310786805293e-01  0.000000000000000e+00  0.000000000000000e+00  0.000000000000000e+00
86 2 4  1.999738283678889e+02  5.710670375265181e-04  9.744071006774902e+00 -1 0 0  0.000000000000000e+00  0.000000000000000e+00  0.000000000000000e+00  7.223639619682036e-01  0.000000000000000e+00  0.000000000000000e+00  6.915130558779058e-01  0.000000000000000e+00  0.000000000000000e+00  0.000000000000000e+00
87 2 4  3.302884399890900e-01  9.909128397703171e-02  1.013383388519287e+01 0 0 0  0.000000000000000e+00  0.000000000000000e+00  0.000000000000000e+00  4.740882121328102e-01  0.000000000000000e+00  0.000000000000000e+00  8.804773518476871e-01  0.000000000000000e+00  0.000000000000000e+00  0.000000000000000e+00
88 2 4  5.612664222717285e-01  3.879151046276093e-01  1.052359676361084e+01 0 0 0  0.000000000000000e+00  0.000000000000000e+00  0.000000000000000e+00  1.796607438419200e-01  0.000000000000000e+00  0.000000000000000e+00  9.837286298172725e-01  0.000000000000000e+00  0.000000000000000e+00  0.000000000000000e+00
89 2 4  5.790098905563354e-01  7.573134899139404e-01  1.091335964202881e+01 0 0 0  0.000000000000000e+00  0.000000000000000e+00  0.000000000000000e+00 -1.322564063245057e-01  0.000000000000000e+00  0.000000000000000e+00  9.912155381076949e-01  0.000000000000000e+00  0.000000000000000e+00  0.000000000000000e+00
90 2 4  3.767778277397156e-01  1.066945910453796e+00  1.130312252044678e+01 0 0 0  0.000000000000000e+00  0.000000000000000e+00  0.000000000000000e+00 -4.312986136389697e-01  0.000000000000000e+00  0.000000000000000e+00  9.022092361936352e-01  0.000000000000000e+00  0.000000000000000e+00  0.000000000000000e+00
91 2 4  3.140157461166382e-02  1.199177742004395e+00  1.169288539886475e+01 0 0 0  0.000000000000000e+00  0.000000000000000e+00  0.000000000000000e+00  6.883545766905014e-01  0.000000000000000e+00  0.000000000000000e+00 -7.253743700664097e-01  0.000000000000000e+00  0.000000000000000e+00  0.000000000000000e+00
92 2 4  1.996740953326225e+02  1.103771924972534e+00  1.208264827728271e+01 -1 0 0  0.000000000000000e+00  0.000000000000000e+00  0.000000000000000e+00  8.784003685588901e-01 -0.000000000000000e+00  0.000000000000000e+00 -4.779255093794492e-01  0.000000000000000e+00  0.000000000000000e+00  0.000000000000000e+00
93 2 4  1.994406057000160e+02  8.169747591018677e-01  1.247241115570068e+01 -1 0 0  0.000000000000000e+00  0.000000000000000e+00  0.000000000000000e+00  9.829353434946650e-01 -0.000000000000000e+00  0.000000000000000e+00 -1.839513808293507e-01  0.000000000000000e+00  0.000000000000000e+00  0.000000000000000e+00
94 2 4  1.994196393489838e+02  4.477452337741852e-01  1.286217403411865e+01 -1 0 0  0.000000000000000e+00  0.000000000000000e+00  0.000000000000000e+00  9.917831823173854e-01  0.000000000000000e+00  0.000000000000000e+00  1.279301343405839e-01  0.000000000000000e+00  0.000000000000000e+00  0.000000000000000e+00
95 2 4  1.996191616952419e+02  1.363598555326462e-01  1.325193691253662e+01 -1 0 0  0.000000000000000e+00  0.000000000000000e+00  0.000000000000000e+00  9.040825463196610e-01  0.000000000000000e+00  0.000000000000000e+00  4.273578704553813e-01  0.000000000000000e+00  0.000000000000000e+00  0.000000000000000e+00